http://scholar.google.com/scholar?hl=en&q=Darren+Abramson%2C+Jeff+Jackson%2C+Sridhar+Muthrasanallur%2C+Gil+Neiger%2C+Greg+Regnier%2C+Rajesh+Sankaran%2C+Ioannis+Schoinas%2C+Rich+Uhlig%2C+Balaji+Vembu%2C+and+John+Wiegert.+2006.+Intel+virtualization+technology+for+directed+I%2FO.+Intel+Technol.+J.+10%2C+3+%282006%29.+10.1535%2Fitj.1003.02
http://scholar.google.com/scholar?hl=en&q=EC+Amazon.+2010.+Amazon+elastic+compute+cloud+%28Amazon+EC2%29.+https%3A%2F%2Faws.amazon.com%2Fec2%2F.
http://scholar.google.com/scholar?hl=en&q=AMD.+2009.+R6xx_3D_Registers.pdf.+Retrieved+from+http%3A%2F%2Famd-dev.wpengine.netdna-cdn.com%2Fwordpress%2Fmedia%2F2013%2F10%2FR6xx_3D_Registers.pdf.+%282009%29.
http://scholar.google.com/scholar?hl=en&q=Joshua+Anderson%2C+Aaron+Keys%2C+Carolyn+Phillips%2C+Trung+Dac+Nguyen%2C+and+Sharon+Glotzer.+2010.+HOOMD-blue%2C+general-purpose+many-body+dynamics+on+the+GPU.+In+APS+Meeting+Abstracts%2C+Vol.+1.+18008.
http://scholar.google.com/scholar?hl=en&q=Krste+Asanovic%2C+Ras+Bodik%2C+Bryan+Christopher+Catanzaro%2C+Joseph+James+Gebis%2C+Parry+Husbands%2C+Kurt+Keutzer%2C+David+A.+Patterson%2C+William+Lester+Plishker%2C+John+Shalf%2C+Samuel+Webb+Williams%2C+and+others.+2006.+The+Landscape+of+Parallel+Computing+Research%3A+A+View+from+Berkeley.+EECS+Department+Technical+Report+UCB%2FEECS-2006-183.+University+of+California%2C+Berkeley.
http://scholar.google.com/scholar?hl=en&q=Andreu+Badal+and+Aldo+Badano.+2009.+Accelerating+monte+carlo+simulations+of+photon+transport+in+a+voxelized+geometry+using+a+massively+parallel+graphics+processing+unit.+Med.+Phys.+36%2C+11+%282009%29%2C+4878%2D%2D4880.+10.1118%2F1.3231824
http://scholar.google.com/scholar?hl=en&q=Paul+Barham%2C+Boris+Dragovic%2C+Keir+Fraser%2C+Steven+Hand%2C+Tim+Harris%2C+Alex+Ho%2C+Rolf+Neugebauer%2C+Ian+Pratt%2C+and+Andrew+Warfield.+2003.+Xen+and+the+art+of+virtualization.+ACM+SIGOPS+Operat.+Syst.+Rev.+37%2C+5+%282003%29%2C+164%2D%2D177.+10.1145%2F1165389.945462+
http://scholar.google.com/scholar?hl=en&q=Andreas+Athanasopoulos%2C+Anastasios+Dimou%2C+Vasileios+Mezaris%2C+and+Ioannis+Kompatsiaris.+2011.+GPU+acceleration+for+support+vector+machines.+In+12th+International+Workshop+on+Image+Analysis+for+Multimedia+Interactive+Services+%28WIAMIS%E2%80%9911%29.+TU+Delft%3B+EWI%3B+MM%3B+PRB%2C+Delft%2C+The+Netherlands.
http://scholar.google.com/scholar?hl=en&q=Can+Basaran+and+Kyoung-Don+Kang.+2012.+Supporting+preemptive+task+executions+and+memory+copies+in+gpgpus.+In+Proceedings+of+the+2012+24th+Euromicro+Conference+on+Real-Time+Systems.+IEEE%2C+287%2D%2D296.+10.1109%2FECRTS.2012.15+
http://scholar.google.com/scholar?hl=en&q=Michela+Becchi%2C+Kittisak+Sajjapongse%2C+Ian+Graves%2C+Adam+Procter%2C+Vignesh+Ravi%2C+and+Srimat+Chakradhar.+2012.+A+virtual+memory+based+runtime+to+support+multi-tenancy+in+clusters+with+GPUs.+In+Proceedings+of+the+21st+International+Symposium+on+High-Performance+Parallel+and+Distributed+Computing.+ACM%2C+97%2D%2D108.+10.1145%2F2287076.2287090+
http://scholar.google.com/scholar?hl=en&q=Brahim+Bensaou%2C+Danny+H.+K.+Tsang%2C+and+King+Tung+Chan.+2001.+Credit-based+fair+queueing+%28CBFQ%29%3A+A+simple+service-scheduling+algorithm+for+packet-switched+networks.+IEEE%2FACM+Trans.+Network.+9%2C+5+%282001%29%2C+591%2D%2D604.+10.1109%2F90.958328+
http://scholar.google.com/scholar?hl=en&q=David+Blythe.+2006.+The+direct3d+10+system.+In+ACM+Transactions+on+Graphics%2C+Vol.+25.+ACM%2C+724%2D%2D734.+10.1145%2F1141911.1141947+
http://scholar.google.com/scholar?hl=en&q=Robert+A.+Bridges%2C+Neena+Imam%2C+and+Tiffany+M+Mintz.+2016.+Understanding+GPU+power%3A+A+survey+of+profiling%2C+modeling%2C+and+simulation+methods.+ACM+Comput.+Surv.+49%2C+3+%282016%29%2C+41.+10.1145%2F2962131+
http://scholar.google.com/scholar?hl=en&q=Anton+Burtsev%2C+Kiran+Srinivasan%2C+Prashanth+Radhakrishnan%2C+Kaladhar+Voruganti%2C+and+Garth+R.+Goodson.+2009.+Fido%3A+Fast+inter-virtual-machine+communication+for+enterprise+appliances.+In+Proceedings+of+the+USENIX+Annual+Technical+Conference.+
http://scholar.google.com/scholar?hl=en&q=Adri%C3%A1n+Castell%C3%B3%2C+Antonio+J.+Pe%C3%B1a%2C+Rafael+Mayo%2C+Pavan+Balaji%2C+and+Enrique+S.+Quintana-Ort%C3%AD.+2015.+Exploring+the+suitability+of+remote+GPGPU+virtualization+for+the+OpenACC+programming+model+using+rCUDA.+In+Proceedings+of+the+2015+IEEE+International+Conference+on+Cluster+Computing.+IEEE%2C+92%2D%2D95.+10.1109%2FCLUSTER.2015.23+
http://scholar.google.com/scholar?hl=en&q=Ethan+Cerami.+2002.+Web+Services+Essentials%3A+Distributed+Applications+with+XML-RPC%2C+SOAP%2C+UDDI+8+WSDL.+O%E2%80%99Reilly+Media%2C+Inc.+
http://scholar.google.com/scholar?hl=en&q=Charu+Chaubal.+2008.+The+architecture+of+vmware+esxi.+VMware+White+Pap.+1%2C+7+%282008%29.
http://scholar.google.com/scholar?hl=en&q=Shuai+Che%2C+Michael+Boyer%2C+Jiayuan+Meng%2C+David+Tarjan%2C+Jeremy+W.+Sheaffer%2C+Sang-Ha+Lee%2C+and+Kevin+Skadron.+2009.+Rodinia%3A+A+benchmark+suite+for+heterogeneous+computing.+In+Proceedings+of+the+IEEE+International+Symposium+on+Workload+Characterization%2C+2009+%28IISWC%E2%80%9909%29.+IEEE%2C+44%2D%2D54.+10.1109%2FIISWC.2009.5306797+
http://scholar.google.com/scholar?hl=en&q=Hao+Chen%2C+Lin+Shi%2C+and+Jianhua+Sun.+2010.+VMRPC%3A+A+high+efficiency+and+light+weight+RPC+system+for+virtual+machines.+In+Proceedings+of+the+2010+18th+International+Workshop+on+Quality+of+Service+%28IWQoS%E2%80%9910%29.+IEEE%2C+1%2D%2D9.+10.1109%2FIWQoS.2010.5542746
http://scholar.google.com/scholar?hl=en&q=Yun+Chan+Cho+and+Jae+Wook+Jeon.+2007.+Sharing+data+between+processes+running+on+different+domains+in+para-virtualized+xen.+In+Proceedings+of+the+International+Conference+on+Control%2C+Automation+and+Systems%2C+2007+%28ICCAS%E2%80%9907%29.+IEEE%2C+1255%2D%2D1260.
http://scholar.google.com/scholar?hl=en&q=Steve+Crago%2C+Kyle+Dunn%2C+Patrick+Eads%2C+Lorin+Hochstein%2C+Dong-In+Kang%2C+Mikyung+Kang%2C+Devendra+Modium%2C+Karandeep+Singh%2C+Jinwoo+Suh%2C+and+John+Paul+Walters.+2011.+Heterogeneous+cloud+computing.+In+Proceedings+of+the+2011+IEEE+International+Conference+on+Cluster+Computing.+IEEE%2C+378%2D%2D385.+10.1109%2FCLUSTER.2011.49+
http://scholar.google.com/scholar?hl=en&q=Chris+I.+Dalton%2C+David+Plaquin%2C+Wolfgang+Weidner%2C+Dirk+Kuhlmann%2C+Boris+Balacheff%2C+and+Richard+Brown.+2009.+Trusted+virtual+platforms%3A+A+key+enabler+for+converged+client+devices.+ACM+SIGOPS+Operat.+Syst.+Rev.+43%2C+1+%282009%29%2C+36%2D%2D43.+10.1145%2F1496909.1496918+
http://scholar.google.com/scholar?hl=en&q=Anthony+Danalis%2C+Gabriel+Marin%2C+Collin+McCurdy%2C+Jeremy+S.+Meredith%2C+Philip+C.+Roth%2C+Kyle+Spafford%2C+Vinod+Tipparaju%2C+and+Jeffrey+S.+Vetter.+2010.+The+scalable+heterogeneous+computing+%28SHOC%29+benchmark+suite.+In+Proceedings+of+the+3rd+Workshop+on+General-Purpose+Computation+on+Graphics+Processing+Units.+ACM%2C+63%2D%2D74.+10.1145%2F1735688.1735702+
http://scholar.google.com/scholar?hl=en&q=A.+Demers%2C+S.+Keshav%2C+and+S.+Shenker.+1989.+Design+and+analysis+of+a+fair+queuing+algorithm.+In+Proceedings+of+the+ACM+Special+Interest+Group+on+Data+Communication+%28SIGCOMM%E2%80%9989%29%2C+Vol.+89.+10.1145%2F75246.75248+
http://scholar.google.com/scholar?hl=en&q=Roberto+Di+Lauro%2C+Flora+Giannone%2C+Luigia+Ambrosio%2C+and+Raffaele+Montella.+2012.+Virtualizing+general+purpose+GPUs+for+high+performance+cloud+computing%3A+An+application+to+a+fluid+simulator.+In+Proceedings+of+the+2012+IEEE+10th+International+Symposium+on+Parallel+and+Distributed+Processing+with+Applications+%28ISPA%E2%80%9912%29.+IEEE%2C+863%2D%2D864.+10.1109%2FISPA.2012.136+
http://scholar.google.com/scholar?hl=en&q=Matthew+Dixon%2C+Sabbir+Ahmed+Khan%2C+and+Mohammad+Zubair.+2014.+Accelerating+option+risk+analytics+in+R+using+GPUs.+In+Proceedings+of+the+High+Performance+Computing+Symposium.+Society+for+Computer+Simulation+International%2C+24.+
http://scholar.google.com/scholar?hl=en&q=Yaozu+Dong%2C+Mochi+Xue%2C+Xiao+Zheng%2C+Jiajun+Wang%2C+Zhengwei+Qi%2C+and+Haibing+Guan.+2015.+Boosting+GPU+virtualization+performance+with+hybrid+shadow+page+tables.+In+Proceedings+of+the+2015+USENIX+Annual+Technical+Conference+%28USENIX+ATC%E2%80%9915%29.+517%2D%2D528.+
http://scholar.google.com/scholar?hl=en&q=Yaozu+Dong%2C+Xiaowei+Yang%2C+Jianhui+Li%2C+Guangdeng+Liao%2C+Kun+Tian%2C+and+Haibing+Guan.+2012.+High+performance+network+virtualization+with+SR-IOV.+J.+Parallel+Distrib.+Comput.+72%2C+11+%282012%29%2C+1471%2D%2D1480.+10.1016%2Fj.jpdc.2012.01.020+
http://scholar.google.com/scholar?hl=en&q=Jack+J.+Dongarra%2C+Piotr+Luszczek%2C+and+Antoine+Petitet.+2003.+The+LINPACK+benchmark%3A+Past%2C+present+and+future.+Concurr.+Comput.%3A+Pract.+Exper.+15%2C+9+%282003%29%2C+803%2D%2D820.+10.1002%2Fcpe.728
http://scholar.google.com/scholar?hl=en&q=Micah+Dowty+and+Jeremy+Sugerman.+2009.+GPU+virtualization+on+VMware%E2%80%99s+hosted+I%2FO+architecture.+ACM+SIGOPS+Operat.+Syst.+Rev.+43%2C+3+%282009%29%2C+73%2D%2D82.+10.1145%2F1618525.1618534+
http://scholar.google.com/scholar?hl=en&q=Jos%C3%A9+Duato%2C+Francisco+D.+Igual%2C+Rafael+Mayo%2C+Antonio+J.+Pe%C3%B1a%2C+Enrique+S.+Quintana-Ort%C3%AD%2C+and+Federico+Silla.+2009.+An+efficient+implementation+of+GPU+virtualization+in+high+performance+clusters.+In+European+Conference+on+Parallel+Processing.+Springer%2C+385%2D%2D394.+
http://scholar.google.com/scholar?hl=en&q=Jos%C3%A9+Duato%2C+Antonio+J.+Pe%C3%B1a%2C+Federico+Silla%2C+Juan+C.+Fernandez%2C+Rafael+Mayo%2C+and+Enrique+S.+Quintana-Ort%C3%AD.+2011.+Enabling+CUDA+acceleration+within+virtual+machines+using+rCUDA.+In+Proceedings+of+the+2011+18th+International+Conference+on+High+Performance+Computing+%28HiPC%E2%80%9911%29.+IEEE%2C+1%2D%2D10.+10.1109%2FHiPC.2011.6152718+
http://scholar.google.com/scholar?hl=en&q=Jos%C3%A9+Duato%2C+Antonio+J.+Pe%C3%B1a%2C+Federico+Silla%2C+Rafael+Mayo%2C+and+Enrique+S.+Quintana-Ort%C4%B1.+2010a.+Modeling+the+CUDA+remoting+virtualization+behaviour+in+high+performance+networks.+In+Proceedings+of+the+1st+Workshop+on+Language%2C+Compiler%2C+and+Architecture+Support+for+GPGPU.
http://scholar.google.com/scholar?hl=en&q=Jos%C3%A9+Duato%2C+Antonio+J.+Pe%C3%B1a%2C+Federico+Silla%2C+Rafael+Mayo%2C+and+Enrique+S.+Quintana-Ort%C3%AD.+2010b.+rCUDA%3A+Reducing+the+number+of+GPU-based+accelerators+in+high+performance+clusters.+In+Proceedings+of+the+2010+International+Conference+on+High+Performance+Computing+and+Simulation+%28HPCS%E2%80%9910%29.+IEEE%2C+224%2D%2D231.+10.1109%2FHPCS.2010.5547126
http://scholar.google.com/scholar?hl=en&q=Jos%C3%A9+Duato%2C+Antonio+J.+Pe%C3%B1a%2C+Federico+Silla%2C+Rafael+Mayo%2C+and+Enrique+S+Quintana-Ort%C3%AD.+2011.+Performance+of+CUDA+virtualized+remote+GPUs+in+high+performance+clusters.+In+Proceedings+of+the+2011+International+Conference+on+Parallel+Processing+%28ICPP%E2%80%9911%29.+IEEE%2C+365%2D%2D374.+10.1109%2FICPP.2011.58+
http://scholar.google.com/scholar?hl=en&q=Ashok+Dwarakinath.+2008.+A+Fair-Share+Scheduler+for+the+Graphics+Processing+Unit.+Ph.D.+Dissertation.+Citeseer.
http://scholar.google.com/scholar?hl=en&q=Roberto+R.+Exp%C3%B3sito%2C+Guillermo+L.+Taboada%2C+Sabela+Ramos%2C+Juan+Touri%C3%B1o%2C+and+Ram%C3%B3n+Doallo.+2013.+General-purpose+computation+on+GPUs+for+high+performance+cloud+computing.+Concurr.+Comput.%3A+Pract.+Exper.+25%2C+12+%282013%29%2C+1628%2D%2D1642.+10.1002%2Fcpe.2845
http://scholar.google.com/scholar?hl=en&q=Naila+Farooqui%2C+Rajkishore+Barik%2C+Brian+T.+Lewis%2C+Tatiana+Shpeisman%2C+and+Karsten+Schwan.+2016.+Affinity-aware+work-stealing+for+integrated+CPU-GPU+processors.+In+Proceedings+of+the+21st+ACM+SIGPLAN+Symposium+on+Principles+and+Practice+of+Parallel+Programming.+ACM%2C+30.+10.1145%2F2851141.2851194+
http://scholar.google.com/scholar?hl=en&q=Denis+Foley.+2014.+NVLink%2C+pascal+and+stacked+memory%3A+Feeding+the+appetite+for+big+data.+Retrieved+from+Nvidia.com+%282014%29.
http://scholar.google.com/scholar?hl=en&q=Futuremark.+1998.+3DMark+Benchmarks%E2%80%94See+the+Current+Range+of+this+Popular+PC+Graphics+Card+Test.+Retrieved+from+http%3A%2F%2Fwww.futuremark.com%2Fbenchmarks%2F3dmark%2Fall%3F_ga%26equals%3B1.168926249.987441096.1470653002.+%281998%29.
http://scholar.google.com/scholar?hl=en&q=Tal+Garfinkel+and+Mendel+Rosenblum.+2005.+When+virtual+is+harder+than+real%3A+Security+challenges+in+virtual+machine+based+computing+environments.+In+Proceedings+of+the+Workshop+on+Hot+Topics+in+Operating+Systems+%28HotOS%E2%80%9905%29.+
http://scholar.google.com/scholar?hl=en&q=Carl+Gebhardt+and+Allan+Tomlinson.+2010.+Challenges+for+Inter+Virtual+Machine+Communication.+Technical+Report.+Citeseer.
http://scholar.google.com/scholar?hl=en&q=Francisco+Giunta%2C+Raffaele+Montella%2C+Giuliano+Laccetti%2C+Florin+Isaila%2C+and+F.+Blas.+2011.+A+GPU+accelerated+high+performance+cloud+computing+infrastructure+for+grid+computing+based+virtual+environmental+laboratory.+Adv.+Grid+Comput.+Lecture+Notes+in+Computer+Science.+Vol.%26nbsp%3B6271.+Springer%2C+Berlin%2C+Heidelberg%2C+35%2D%2D43.
http://scholar.google.com/scholar?hl=en&q=Giulio+Giunta%2C+Raffaele+Montella%2C+Giuseppe+Agrillo%2C+and+Giuseppe+Coviello.+2010.+A+GPGPU+transparent+virtualization+component+for+high+performance+computing+clouds.+In+Euro-Par+2010-Parallel+Processing.+Springer%2C+379%2D%2D391.+10.1007%2F978-3-642-15277-1_37+
http://scholar.google.com/scholar?hl=en&q=Jens+Glaser%2C+Trung+Dac+Nguyen%2C+Joshua+A.+Anderson%2C+Pak+Lui%2C+Filippo+Spiga%2C+Jaime+A.+Millan%2C+David+C.+Morse%2C+and+Sharon+C.+Glotzer.+2015.+Strong+scaling+of+general-purpose+molecular+dynamics+simulations+on+GPUs.+Comput.+Phys.+Commun.+192+%282015%29%2C+97%2D%2D107.+10.1016%2Fj.cpc.2015.02.028
http://scholar.google.com/scholar?hl=en&q=Robert+P.+Goldberg.+1974.+Survey+of+virtual+machine+research.+Computer+7%2C+6+%281974%29%2C+34%2D%2D45.+10.1109%2FMC.1974.6323581+
http://scholar.google.com/scholar?hl=en&q=Mathias+Gottschlag%2C+Martin+Hillenbrand%2C+Jens+Kehne%2C+Jan+Stoess%2C+and+Frank+Bellosa.+2013.+LoGV%3A+Low-overhead+GPGPU+virtualization.+In+Proceedings+of+the+2013+IEEE+10th+International+Conference+on+High+Performance+Computing+and+Communications+8+2013+IEEE+International+Conference+on+Embedded+and+Ubiquitous+Computing+%28HPCC_EUC%E2%80%9913%29.+IEEE%2C+1721%2D%2D1726.
http://scholar.google.com/scholar?hl=en&q=Simon+Green.+2010.+Particle+simulation+using+cuda.+NVIDIA+Whitepaper+6+%282010%29%2C+121%2D%2D128.
http://scholar.google.com/scholar?hl=en&q=William+Gropp%2C+Ewing+Lusk%2C+Nathan+Doss%2C+and+Anthony+Skjellum.+1996.+A+high-performance%2C+portable+implementation+of+the+MPI+message+passing+interface+standard.+Parallel+Comput.+22%2C+6+%281996%29%2C+789%2D%2D828.+10.1016%2F0167-8191%2896%2900024-5+
http://scholar.google.com/scholar?hl=en&q=Khronos+OpenCL+Working+Group+et%26nbsp%3Bal.+2008.+The+opencl+specification.+Version+1%2C+29+%282008%29%2C+8.
http://scholar.google.com/scholar?hl=en&q=Vishakha+Gupta%2C+Ada+Gavrilovska%2C+Karsten+Schwan%2C+Harshvardhan+Kharche%2C+Niraj+Tolia%2C+Vanish+Talwar%2C+and+Parthasarathy+Ranganathan.+2009.+GViM%3A+GPU-accelerated+virtual+machines.+In+Proceedings+of+the+3rd+ACM+Workshop+on+System-level+Virtualization+for+High+Performance+Computing.+ACM%2C+17%2D%2D24.+10.1145%2F1519138.1519141+
http://scholar.google.com/scholar?hl=en&q=Haibing+Guan%2C+Jianguo+Yao%2C+Zhengwei+Qi%2C+and+Runze+Wang.+2015.+Energy-efficient+SLA+guarantees+for+virtualized+GPU+in+cloud+gaming.+IEEE+Trans.actions+on+Parallel+Distrib.+Syst.+26%2C+9+%282015%29%2C+2434%2D%2D2443.
http://scholar.google.com/scholar?hl=en&q=Vishakha+Gupta%2C+Karsten+Schwan%2C+Niraj+Tolia%2C+Vanish+Talwar%2C+and+Parthasarathy+Ranganathan.+2011.+Pegasus%3A+Coordinated+scheduling+for+virtualized+accelerator-based+systems.+In+Proceedings+of+the+2011+USENIX+Annual+Technical+Conference+%28USENIX+ATC%E2%80%9911%29.+31.+
http://scholar.google.com/scholar?hl=en&q=Per+Hammarlund%2C+Alberto+J.+Martinez%2C+Atiq+A.+Bajwa%2C+David+L.+Hill%2C+Erik+Hallnor%2C+Hong+Jiang%2C+Martin+Dixon%2C+Michael+Derr%2C+Mikal+Hunsaker%2C+Rajesh+Kumar%2C+et%26nbsp%3Bal.+2014.+Haswell%3A+The+fourth-generation+intel+core+processor.+IEEE+Micro+34%2C+2+%282014%29%2C+6%2D%2D20.+10.1109%2FMM.2014.10
http://scholar.google.com/scholar?hl=en&q=Jacob+Gorm+Hansen.+2007.+Blink%3A+Advanced+display+multiplexing+for+virtualized+applications.+In+Proceedings+of+the+SIGMM+Workshop+on+Network+and+Operating+Systems+Support+for+Digital+Audio+and+Video+%28NOSSDAV%E2%80%9907%29.
http://scholar.google.com/scholar?hl=en&q=Nadav+Har%E2%80%99El%2C+Abel+Gordon%2C+Alex+Landau%2C+Muli+Ben-Yehuda%2C+Avishay+Traeger%2C+and+Razya+Ladelsky.+2013.+Efficient+and+scalable+paravirtual+I%2FO+system.+In+Proceedings+of+the+USENIX+Annual+Technical+Conference.+231%2D%2D242.+
http://scholar.google.com/scholar?hl=en&q=Nicholas+Haydel%2C+Sandra+Gesing%2C+Ian+Taylor%2C+Gregory+Madey%2C+Abdul+Dakkak%2C+Simon+Garcia+De+Gonzalo%2C+and+Wen-Mei+W.+Hwu.+2015.+Enhancing+the+usability+and+utilization+of+accelerated+architectures+via+docker.+In+Proceedings+of+the+2015+IEEE%2FACM+8th+International+Conference+on+Utility+and+Cloud+Computing+%28UCC%E2%80%9915%29.+IEEE%2C+361%2D%2D367.
http://scholar.google.com/scholar?hl=en&q=Alex+Herrera.+2014.+NVIDIA+GRID%3A+Graphics+accelerated+VDI+with+the+visual+performance+of+a+workstation.+Nvidia+Corp+%282014%29.+http%3A%2F%2Fwww.nvidia.com%2Fcontent%2Fgrid%2Fvdi-whitepaper.pdf.
http://scholar.google.com/scholar?hl=en&q=Hua-Jun+Hong%2C+Tao-Ya+Fan-Chiang%2C+Che-Run+Lee%2C+Kuan-Ta+Chen%2C+Chun-Ying+Huang%2C+and+Cheng-Hsin+Hsu.+2014.+GPU+consolidation+for+cloud+games%3A+Are+we+there+yet%3F.+In+Proceedings+of+the+13th+Annual+Workshop+on+Network+and+Systems+Support+for+Games.+IEEE+Press%2C+3.+10.1109%2FNetGames.2014.7008969+
http://scholar.google.com/scholar?hl=en&q=Yu-Ju+Huang%2C+Hsuan-Heng+Wu%2C+Yeh-Ching+Chung%2C+and+Wei-Chung+Hsu.+2016.+Building+a+KVM-based+hypervisor+for+a+heterogeneous+system+architecture+compliant+system.+In+Proceedings+of+the12th+ACM+SIGPLAN%2FSIGOPS+International+Conference+on+Virtual+Execution+Environments.+ACM%2C+3%2D%2D15.+10.1145%2F2892242.2892246+
http://scholar.google.com/scholar?hl=en&q=Greg+Humphreys%2C+Mike+Houston%2C+Ren+Ng%2C+Randall+Frank%2C+Sean+Ahern%2C+Peter+D.+Kirchner%2C+and+James+T.+Klosowski.+2002.+Chromium%3A+A+stream-processing+framework+for+interactive+rendering+on+clusters.+In+ACM+Transactions+on+Graphics%2C+Vol.+21.+ACM%2C+693%2D%2D702.+10.1145%2F566654.566639+
http://scholar.google.com/scholar?hl=en&q=Su+Min+Jang%2C+Won+Hyuk+Choi%2C+and+Won+Young+Kim.+2013.+Client+rendering+method+for+desktop+virtualization+services.+ETRI+J.+35%2C+2+%282013%29%2C+348%2D%2D351.+10.4218%2Fetrij.13.0212.0213
http://scholar.google.com/scholar?hl=en&q=V%C3%ADctor+J.+Jim%C3%A9nez%2C+Llu%C3%ADs+Vilanova%2C+Isaac+Gelado%2C+Marisa+Gil%2C+Grigori+Fursin%2C+and+Nacho+Navarro.+2009.+Predictive+runtime+code+scheduling+for+heterogeneous+architectures.+In+High+Performance+Embedded+Architectures+and+Compilers.+Springer%2C+19%2D%2D33.+10.1007%2F978-3-540-92990-1_4+
http://scholar.google.com/scholar?hl=en&q=Heeseung+Jo%2C+Jinkyu+Jeong%2C+Myoungho+Lee%2C+and+Dong+Hoon+Choi.+2013a.+Exploiting+GPUs+in+virtual+machine+for+biocloud.+BioMed+Res.+Int.+2013+%282013%29.
http://scholar.google.com/scholar?hl=en&q=Hee+Seung+Jo%2C+Myung+Ho+Lee%2C+and+Dong+Hoon+Choi.+2013b.+GPU+virtualization+using+PCI+direct+pass-through.+In+Applied+Mechanics+and+Materials%2C+Vol.+311.+Trans+Tech+Publ%2C+15%2D%2D19.+10.4028%2Fwww.scientific.net%2FAMM.311.15
http://scholar.google.com/scholar?hl=en&q=David+Kanter.+2010.+Intels+sandy+bridge+microarchitecture.+http%3A%2F%2Fwww.realworldtech.com%2Fsandy-bridge%2F.
http://scholar.google.com/scholar?hl=en&q=Ian+Karlin%2C+Jeff+Keasler%2C+and+Rob+Neely.+2013.+Lulesh+2.0+updates+and+changes.+Livermore%2C+CA+%282013%29.+https%3A%2F%2Fcodesign.llnl.gov%2Flulesh.php.
http://scholar.google.com/scholar?hl=en&q=Shinpei+Kato%2C+Scott+Brandt%2C+Yutaka+Ishikawa%2C+and+R+Rajkumar.+2011a.+Operating+systems+challenges+for+GPU+resource+management.+In+Proceedings+of+the+International+Workshop+on+Operating+Systems+Platforms+for+Embedded+Real-Time+Applications.+23%2D%2D32.
http://scholar.google.com/scholar?hl=en&q=Shinpei+Kato%2C+Karthik+Lakshmanan%2C+Yutaka+Ishikawa%2C+and+Ragunathan+Rajkumar.+2011b.+Resource+sharing+in+GPU-accelerated+windowing+systems.+In+Proceedings+of+the+2011+17th+IEEE+Real-Time+and+Embedded+Technology+and+Applications+Symposium+%28RTAS%E2%80%9911%29.+IEEE%2C+191%2D%2D200.+10.1109%2FRTAS.2011.26+
http://scholar.google.com/scholar?hl=en&q=Shinpei+Kato%2C+Karthik+Lakshmanan%2C+Aman+Kumar%2C+Mihir+Kelkar%2C+Yutaka+Ishikawa%2C+and+Ragunathan+Rajkumar.+2011c.+RGEM%3A+A+responsive+GPGPU+execution+model+for+runtime+engines.+In+Proceedings+of+the+2011+IEEE+32nd+Real-Time+Systems+Symposium+%28RTSS%E2%80%9911%29.+IEEE%2C+57%2D%2D66.+10.1109%2FRTSS.2011.13+
http://scholar.google.com/scholar?hl=en&q=Shinpei+Kato%2C+Karthik+Lakshmanan%2C+Raj+Rajkumar%2C+and+Yutaka+Ishikawa.+2011d.+TimeGraph%3A+GPU+scheduling+for+real-time+multi-tasking+environments.+In+Proceedings+of+the+2011+USENIX+Annual+Technical+Conference+%28USENIX+ATC%E2%80%9911%29.+17.+
http://scholar.google.com/scholar?hl=en&q=Shinpei+Kato%2C+Michael+McThrow%2C+Carlos+Maltzahn%2C+and+Scott+A.+Brandt.+2012.+Gdev%3A+First-class+GPU+resource+management+in+the+operating+system..+In+Proceedings+of+the+USENIX+Annual+Technical+Conference+%28USENIX+ATC%E2%80%9911%29.+401%2D%2D412.+
http://scholar.google.com/scholar?hl=en&q=Se+Won+Kim%2C+Chiyoung+Lee%2C+MooWoong+Jeon%2C+Hae+Young+Kwon%2C+Hyun+Woo+Lee%2C+and+Chuck+Yoo.+2013.+Secure+device+access+for+automotive+software.+In+Proceedings+of+the+2013+International+Conference+on+Connected+Vehicles+and+Expo+%28ICCVE%E2%80%9913%29.+IEEE%2C+177%2D%2D181.+10.1109%2FICCVE.2013.6799789
http://scholar.google.com/scholar?hl=en&q=David+B.+Kirk+and+W.+Hwu+Wen-mei.+2012.+Programming+Massively+Parallel+Processors%3A+A+Hands-on+Approach.+Newnes.+
http://scholar.google.com/scholar?hl=en&q=Avi+Kivity%2C+Yaniv+Kamay%2C+Dor+Laor%2C+Uri+Lublin%2C+and+Anthony+Liguori.+2007.+kvm%3A+The+Linux+virtual+machine+monitor.+In+Proceedings+of+the+Linux+Symposium%2C+Vol.+1.+225%2D%2D230.
http://scholar.google.com/scholar?hl=en&q=Nasser+A.+Kurd%2C+Subramani+Bhamidipati%2C+Christopher+Mozak%2C+Jeffrey+L.+Miller%2C+Timothy+M.+Wilson%2C+Mahadev+Nemani%2C+and+Muntaquim+Chowdhury.+2010.+Westmere%3A+A+family+of+32nm+IA+processors.+In+Proceedings+of+the+2010+IEEE+International+Solid-State+Circuits+Conference+%28ISSCC%E2%80%9910%29.+10.1109%2FISSCC.2010.5434033
http://scholar.google.com/scholar?hl=en&q=Maxim+A.+Kuzkin+and+Alexander+G.+Tormasov.+2011.+Method+and+system+for+remote+device+access+in+virtual+environment.+%28issued+date%3A+July+5+2011%29.+Patent+No.+7%2C975%2C017.+Filed+date%3A+Feb+25%2C+2009.
http://scholar.google.com/scholar?hl=en&q=George+Kyriazis.+2012.+Heterogeneous+system+architecture%3A+A+technical+review.+In+Proceedings+of+the+AMD+Fusion+Developer+Summit+%282012%29.
http://scholar.google.com/scholar?hl=en&q=Giuliano+Laccetti%2C+Raffaele+Montella%2C+Carlo+Palmieri%2C+and+Valentina+Pelliccia.+2013.+The+high+performance+internet+of+things%3A+Using+GVirtuS+to+share+high-end+GPUs+with+ARM+based+cluster+computing+nodes.+In+International+Conference+on+Parallel+Processing+and+Applied+Mathematics.+Springer%2C+734%2D%2D744.
http://scholar.google.com/scholar?hl=en&q=H.+Andr%C3%A9s+Lagar-Cavilla%2C+Niraj+Tolia%2C+Mahadev+Satyanarayanan%2C+and+Eyal+De+Lara.+2007.+VMM-independent+graphics+acceleration.+In+Proceedings+of+the+3rd+International+Conference+on+Virtual+Execution+Environments.+ACM%2C+33%2D%2D43.+10.1145%2F1254810.1254816+
http://scholar.google.com/scholar?hl=en&q=Palden+Lama%2C+Yan+Li%2C+Ashwin+M.+Aji%2C+Pavan+Balaji%2C+James+Dinan%2C+Shucai+Xiao%2C+Yunquan+Zhang%2C+Wu-chun+Feng%2C+Rajeev+Thakur%2C+and+Xiaobo+Zhou.+2013.+pVOCL%3A+Power-aware+dynamic+placement+and+migration+in+virtualized+GPU+environments.+In+Proceedings+of+the+2013+IEEE+33rd+International+Conference+on+Distributed+Computing+Systems+%28ICDCS%E2%80%9913%29.+IEEE%2C+145%2D%2D154.+10.1109%2FICDCS.2013.51+
http://scholar.google.com/scholar?hl=en&q=Michael+Larabel+and+M.+Tippett.+2011.+Phoronix+test+suite.+https%3A%2F%2Fwww.phoronix-test-suite.com.
http://scholar.google.com/scholar?hl=en&q=Chiyoung+Lee%2C+Se-Won+Kim%2C+and+Chuck+Yoo.+2016.+VADI%3A+GPU+virtualization+for+an+automotive+platform.+IEEE+Trans.+Industr.+Inf.+12%2C+1+%282016%29%2C+277%2D%2D290.
http://scholar.google.com/scholar?hl=en&q=Gunho+Lee+and+Randy+H.+Katz.+2011.+Heterogeneity-aware+resource+allocation+and+scheduling+in+the+cloud..+In+Proceedings+of+the+3rd+USENIX+Workshop+on+Hot+Topics+in+Cloud+Computing+%28HotCloud%E2%80%9911%29.+
http://scholar.google.com/scholar?hl=en&q=Teng+Li%2C+Vikram+K.+Narayana%2C+Esam+El-Araby%2C+and+Tarek+El-Ghazawi.+2011.+GPU+resource+sharing+and+virtualization+on+high+performance+computing+systems.+In+Proceedings+of+the+2011+International+Conference+on+Parallel+Processing+%28ICPP%E2%80%9911%29.+IEEE%2C+733%2D%2D742.+10.1109%2FICPP.2011.88+
http://scholar.google.com/scholar?hl=en&q=Teng+Li%2C+Vikram+K.+Narayana%2C+and+Tarek+El-Ghazawi.+2012.+Accelerated+high-performance+computing+through+efficient+multi-process+GPU+resource+sharing.+In+Proceedings+of+the+9th+Conference+on+Computing+Frontiers.+ACM%2C+269%2D%2D272.+10.1145%2F2212908.2212950+
http://scholar.google.com/scholar?hl=en&q=Wenqiang+Li%2C+Guanghao+Jin%2C+Xuewen+Cui%2C+and+Simon+See.+2015.+An+evaluation+of+unified+memory+technology+on+nvidia+gpus.+In+Proceedings+of+the+2015+15th+IEEE%2FACM+International+Symposium+on+Cluster%2C+Cloud+and+Grid+Computing+%28CCGrid%E2%80%9915%29.+IEEE%2C+1092%2D%2D1098.+10.1109%2FCCGrid.2015.105
http://scholar.google.com/scholar?hl=en&q=Tyng-Yeu+Liang+and+Yu-Wei+Chang.+2011.+GridCuda%3A+A+grid-enabled+CUDA+programming+toolkit.+In+Proceedings+of+the+2011+IEEE+Workshops+of+International+Conference+on+Advanced+Information+Networking+and+Applications+%28WAINA%E2%80%9911%29.+IEEE%2C+141%2D%2D146.+10.1109%2FWAINA.2011.82+
http://scholar.google.com/scholar?hl=en&q=Christos+Margiolas+and+Michael+F.+P.+O%E2%80%99Boyle.+2016.+Portable+and+transparent+software+managed+scheduling+on+accelerators+for+fair+resource+sharing.+In+Proceedings+of+the+2016+International+Symposium+on+Code+Generation+and+Optimization.+ACM%2C+82%2D%2D93.+10.1145%2F2854038.2854040+
http://scholar.google.com/scholar?hl=en&q=Konstantinos+Menychtas%2C+Kai+Shen%2C+and+Michael+L.+Scott.+2013.+Enabling+OS+research+by+inferring+interactions+in+the+black-box+GPU+stack.+In+Proceedings+of+the+2013+USENIX+Annual+Technical+Conference+%28USENIX+ATC%E2%80%9913%29.+291%2D%2D296.+
http://scholar.google.com/scholar?hl=en&q=Konstantinos+Menychtas%2C+Kai+Shen%2C+and+Michael+L.+Scott.+2014.+Disengaged+scheduling+for+fair%2C+protected+access+to+fast+computational+accelerators.+In+ACM+SIGPLAN+Notices%2C+Vol.+49.+ACM%2C+301%2D%2D316.+10.1145%2F2644865.2541963+
http://scholar.google.com/scholar?hl=en&q=Alexander+M.+Merritt%2C+Vishakha+Gupta%2C+Abhishek+Verma%2C+Ada+Gavrilovska%2C+and+Karsten+Schwan.+2011.+Shadowfax%3A+Scaling+in+heterogeneous+cluster+systems+via+GPGPU+assemblies.+In+Proceedings+of+the+5th+International+Workshop+on+Virtualization+Technologies+in+Distributed+Computing.+ACM%2C+3%2D%2D10.+10.1145%2F1996121.1996124+
http://scholar.google.com/scholar?hl=en&q=Sparsh+Mittal+and+Jeffrey+S.+Vetter.+2015.+A+survey+of+methods+for+analyzing+and+improving+GPU+energy+efficiency.+ACM+Comput.+Surv.+47%2C+2+%282015%29%2C+19.+10.1145%2F2636342+
http://scholar.google.com/scholar?hl=en&q=Raffaele+Montella%2C+Giuseppe+Coviello%2C+Giulio+Giunta%2C+Giuliano+Laccetti%2C+Florin+Isaila%2C+and+Javier+Garcia+Blas.+2011.+A+general-purpose+virtualization+service+for+HPC+on+cloud+computing%3A+An+application+to+GPUs.+In+International+Conference+on+Parallel+Processing+and+Applied+Mathematics.+Springer%2C+740%2D%2D749.+10.1007%2F978-3-642-31464-3_75+
http://scholar.google.com/scholar?hl=en&q=Raffaele+Montella%2C+Giulio+Giunta%2C+and+Giuliano+Laccetti.+2014.+Virtualizing+high-end+GPGPUs+on+ARM+clusters+for+the+next+generation+of+high+performance+cloud+computing.+Cluster+Comput.+17%2C+1+%282014%29%2C+139%2D%2D152.+10.1007%2Fs10586-013-0341-0+
http://scholar.google.com/scholar?hl=en&q=Raffaele+Montella%2C+Giulio+Giunta%2C+Giuliano+Laccetti%2C+Marco+Lapegna%2C+Carlo+Palmieri%2C+Carmine+Ferraro%2C+and+Valentina+Pelliccia.+2016a.+Virtualizing+CUDA+enabled+GPGPUs+on+ARM+clusters.+In+Parallel+Processing+and+Applied+Mathematics.+Springer%2C+3%2D%2D14.+10.1007%2F978-3-319-32152-3_1
http://scholar.google.com/scholar?hl=en&q=Raffaele+Montella%2C+Giulio+Giunta%2C+Giuliano+Laccetti%2C+Marco+Lapegna%2C+Carlo+Palmieri%2C+Carmine+Ferraro%2C+Valentina+Pelliccia%2C+Cheol-Ho+Hong%2C+Ivor+Spence%2C+and+Dimitrios+S.+Nikolopoulos.+2016b.+On+the+virtualization+of+CUDA+based+GPU+remoting+on+ARM+and+X86+machines+in+the+GVirtuS+framework.+Int.+J.+Parallel+Program.+%282016%29%2C+1%2D%2D22.
http://scholar.google.com/scholar?hl=en&q=Christopher+Niederauer%2C+Mike+Houston%2C+Maneesh+Agrawala%2C+and+Greg+Humphreys.+2003.+Non-invasive+interactive+visualization+of+dynamic+architectural+environments.+In+Proceedings+of+the+2003+Symposium+on+Interactive+3D+Graphics.+ACM%2C+55%2D%2D58.+10.1145%2F641480.641493+
http://scholar.google.com/scholar?hl=en&q=Nvidia.+2007a.+CUDA+Code+Samples%E2%80%94NVIDIA+Developer.+Retrieved+from+https%3A%2F%2Fdeveloper.nvidia.com%2Fcuda-code-samples.
http://scholar.google.com/scholar?hl=en&q=NVIDIA.+2012.+HyperQ+Example.+Retrieved+from+http%3A%2F%2Fdocs.nvidia.com%2Fcuda%2Fsamples%2F6_Advanced%2FsimpleHyperQ%2Fdoc%2FHyperQ.pdf.
http://scholar.google.com/scholar?hl=en&q=NVIDIA.+2016a.+GP100+Pascal+Whitepaper.+Retrieved+from+https%3A%2F%2Fimages.nvidia.com%2Fcontent%2Fpdf%2Ftesla%2Fwhitepaper%2Fpascal-architecture-whitepaper.pdf.
http://scholar.google.com/scholar?hl=en&q=NVIDIA.+2016b.+GPU+Cloud+Computing+Service+Providers%E2%80%94NVIDIA.+Retrieved+from+http%3A%2F%2Fwww.nvidia.com%2Fobject%2Fgpu-cloud-computing-services.html.
http://scholar.google.com/scholar?hl=en&q=CUDA+Nvidia.+2007b.+Compute+Unified+Device+Architecture+Programming+Guide.+http%3A%2F%2Fdocs.nvidia.com%2Fcuda%2Fcuda-c-programming-guide%2Findex.html.
http://scholar.google.com/scholar?hl=en&q=Katsuhiko+Ogata.+1995.+Discrete-Time+Control+Systems.+Vol.+2.+Prentice+Hall%2C+Englewood+Cliffs%2C+NJ.+
http://scholar.google.com/scholar?hl=en&q=Masahiro+Oikawa%2C+Atsushi+Kawai%2C+Keigo+Nomura%2C+Koichi+Yasuoka%2C+Kenichi+Yoshikawa%2C+and+Tetsu+Narumi.+2012.+DS-CUDA%3A+A+middleware+to+use+many+GPUs+in+the+cloud+environment.+In+Proceedings+of+the+2012+SC+Companion+to+High+Performance+Computing%2C+Networking%2C+Storage+and+Analysis+%28SCC%29.+IEEE%2C+1207%2D%2D1214.+10.1109%2FSC.Companion.2012.146+
http://scholar.google.com/scholar?hl=en&q=Zhonghong+Ou%2C+Hao+Zhuang%2C+Jukka+K.+Nurminen%2C+Antti+Yl%C3%A4-J%C3%A4%C3%A4ski%2C+and+Pan+Hui.+2012.+Exploiting+hardware+heterogeneity+within+the+same+instance+type+of+Amazon+EC2.+Presented+in+the+4th+USENIX+Workshop+on+Hot+Topics+in+Cloud+Computing+%28HotCloud%29.+
http://scholar.google.com/scholar?hl=en&q=Sankaralingam+Panneerselvam+and+Michael+M+Swift.+2012.+Operating+systems+should+manage+accelerators.+In+Proceedings+of+the+4th+USENIX+Workshop+on+Hot+Topics+in+Parallelism.+
http://scholar.google.com/scholar?hl=en&q=Stan+Park+and+Kai+Shen.+2012.+FIOS%3A+A+fair%2C+efficient+flash+I%2FO+scheduler.+In+Proceedings+of+the+10th+USENEX+Conference+on+File+and+Storage+Technologies+%28FAST%E2%80%9912%29.+13.+
http://scholar.google.com/scholar?hl=en&q=PathScale.+2012.+pathscale%2Fpscnv.+Retrieved+from+https%3A%2F%2Fgithub.com%2Fpathscale%2Fpscnv.
http://scholar.google.com/scholar?hl=en&q=Sagar+Patni%2C+Jobin+George%2C+Pratik+Lahoti%2C+and+Jibi+Abraham.+2015.+A+zero-copy+fast+channel+for+inter-guest+and+guest-host+communication+using+VirtIO-serial.+In+Proceedings+of+the+2015+1st+International+Conference+on+Next+Generation+Computing+Technologies+%28NGCT%E2%80%9915%29.+IEEE%2C+6%2D%2D9.+10.1109%2FNGCT.2015.7375072
http://scholar.google.com/scholar?hl=en&q=David+Patterson.+2009.+The+top+10+innovations+in+the+new+NVIDIA+fermi+architecture%2C+and+the+top+3+next+challenges.+NVIDIA+Whitepaper+47+%282009%29.
http://scholar.google.com/scholar?hl=en&q=Antonio+J.+Pe%C3%B1a%2C+Carlos+Rea%C3%B1o%2C+Federico+Silla%2C+Rafael+Mayo%2C+Enrique+S.+Quintana-Ort%C3%AD%2C+and+Jos%C3%A9+Duato.+2014.+A+complete+and+efficient+CUDA-sharing+solution+for+HPC+clusters.+Parallel+Comput.+40%2C+10+%282014%29%2C+574%2D%2D588.+10.1016%2Fj.parco.2014.09.011+
http://scholar.google.com/scholar?hl=en&q=Ferran+P%C3%A9rez%2C+Carlos+Rea%C3%B1o%2C+and+Federico+Silla.+2016.+Providing+CUDA+acceleration+to+KVM+virtual+machines+in+InfiniBand+Clusters+with+rCUDA.+In+Distributed+Applications+and+Interoperable+Systems.+Springer%2C+82%2D%2D95.+10.1007%2F978-3-319-39577-7_7+
http://scholar.google.com/scholar?hl=en&q=Antoine+Petitet.+2004.+HPL-A+portable+implementation+of+the+high-performance+Linpack+benchmark+for+distributed-memory+computers.+Retrieved+from+http%3A%2F%2Fwww.netlib-.org%2F-benchmark%2Fhpl%2F.
http://scholar.google.com/scholar?hl=en&q=James+C.+Phillips%2C+Rosemary+Braun%2C+Wei+Wang%2C+James+Gumbart%2C+Emad+Tajkhorshid%2C+Elizabeth+Villa%2C+Christophe+Chipot%2C+Robert+D.+Skeel%2C+Laxmikant+Kale%2C+and+Klaus+Schulten.+2005.+Scalable+molecular+dynamics+with+NAMD.+J.+Comput.+Chem.+26%2C+16+%282005%29%2C+1781%2D%2D1802.+10.1002%2Fjcc.20289
http://scholar.google.com/scholar?hl=en&q=Steve+Plimpton%2C+Paul+Crozier%2C+and+Aidan+Thompson.+2007.+LAMMPS-large-scale+atomic%2Fmolecular+massively+parallel+simulator.+Sandia+National+Laboratories+18+%282007%29.+http%3A%2F%2Flammps.sandia.gov.
http://scholar.google.com/scholar?hl=en&q=Javier+Prades%2C+Carlos+Rea%C3%B1o%2C+and+Federico+Silla.+2016.+CUDA+acceleration+for+Xen+virtual+machines+in+infiniband+clusters+with+rCUDA.+In+Proceedings+of+the+21st+ACM+SIGPLAN+Symposium+on+Principles+and+Practice+of+Parallel+Programming.+ACM%2C+35.+10.1145%2F2851141.2851181+
http://scholar.google.com/scholar?hl=en&q=Zhengwei+Qi%2C+Jianguo+Yao%2C+Chao+Zhang%2C+Miao+Yu%2C+Zhizhou+Yang%2C+and+Haibing+Guan.+2014.+VGRIS%3A+Virtualized+GPU+resource+isolation+and+scheduling+in+cloud+gaming.+ACM+Trans.+Arch.+Code+Optimiz.+11%2C+2+%282014%29%2C+17.+10.1145%2F2632216+
http://scholar.google.com/scholar?hl=en&q=Adit+Ranadive+and+Bhavesh+Davda.+2012.+Toward+a+paravirtual+vRDMA+device+for+VMware+ESXi+guests.+VMware+Techn.+J.+2012+1%2C+2+%282012%29.
http://scholar.google.com/scholar?hl=en&q=Vignesh+T.+Ravi%2C+Michela+Becchi%2C+Gagan+Agrawal%2C+and+Srimat+Chakradhar.+2011.+Supporting+GPU+sharing+in+cloud+environments+with+a+transparent+runtime+consolidation+framework.+In+Proceedings+of+the+20th+International+Symposium+on+High+Performance+Distributed+Computing.+ACM%2C+217%2D%2D228.+10.1145%2F1996130.1996160+
http://scholar.google.com/scholar?hl=en&q=Carlos+Rea%C3%B1o%2C+Rafael+Mayo%2C+Enrique+S.+Quintana-Ort%C3%AD%2C+Federico+Silla%2C+Jos%C3%A9+Duato%2C+and+Antonio+J.+Pe%C3%B1a.+2013.+Influence+of+InfiniBand+FDR+on+the+performance+of+remote+GPU+virtualization.+In+Proceedings+of+the+2013+IEEE+International+Conference+on+Cluster+Computing+%28CLUSTER%E2%80%9913%29.+IEEE%2C+1%2D%2D8.+10.1109%2FCLUSTER.2013.6702662
http://scholar.google.com/scholar?hl=en&q=Carlos+Rea%C3%B1o%2C+A.+J.+Pea%2C+Federico+Silla%2C+Jos%C3%A9+Duato%2C+Rafael+Mayo%2C+and+Enrique+S.+Quintana-Ort%C3%AD.+2012.+Cu2rcu%3A+Towards+the+complete+rcuda+remote+gpu+virtualization+and+sharing+solution.+In+Proceedings+of+the+2012+19th+International+Conference+on+High+Performance+Computing+%28HiPC%E2%80%9912%29.+IEEE%2C+1%2D%2D10.+10.1109%2FHiPC.2012.6507485
http://scholar.google.com/scholar?hl=en&q=Carlos+Rea%C3%B1o+and+Federico+Silla.+2015.+A+performance+comparison+of+CUDA+remote+GPU+virtualization+frameworks.+In+Proceedings+of+the+2015+IEEE+International+Conference+on+Cluster+Computing.+IEEE%2C+488%2D%2D489.+10.1109%2FCLUSTER.2015.76+
http://scholar.google.com/scholar?hl=en&q=Carlos+Rea%C3%B1o%2C+Federico+Silla%2C+Adri%C3%A1n+Castell%C3%B3%2C+Antonio+J+.+Pe%C3%B1a%2C+Rafael+Mayo%2C+Enrique+S+Quintana-Ort%C3%AD%2C+and+Jos%C3%A9+Duato.+2015a.+Improving+the+user+experience+of+the+rCUDA+remote+GPU+virtualization+framework.+Concurr.+Comput.%3A+Pract.+Exper.+27%2C+14+%282015%29%2C+3746%2D%2D3770.+10.1002%2Fcpe.3409+
http://scholar.google.com/scholar?hl=en&q=Carlos+Rea%C3%B1o%2C+Federico+Silla%2C+Gilad+Shainer%2C+and+Scot+Schultz.+2015b.+Local+and+remote+GPUs+perform+similar+with+EDR+100G+InfiniBand.+In+Proceedings+of+the+Industrial+Track+of+the+16th+International+Middleware+Conference.+ACM%2C+4.+10.1145%2F2830013.2830015+
http://scholar.google.com/scholar?hl=en&q=Christopher+J.+Rossbach%2C+Jon+Currey%2C+Mark+Silberstein%2C+Baishakhi+Ray%2C+and+Emmett+Witchel.+2011.+PTask%3A+Operating+system+abstractions+to+manage+GPUs+as+compute+devices.+In+Proceedings+of+the+23rd+ACM+Symposium+on+Operating+Systems+Principles.+ACM%2C+233%2D%2D248.+10.1145%2F2043556.2043579+
http://scholar.google.com/scholar?hl=en&q=Eric+E.+Schadt%2C+Michael+D.+Linderman%2C+Jon+Sorenson%2C+Lawrence+Lee%2C+and+Garry+P.+Nolan.+2011.+Cloud+and+heterogeneous+computing+solutions+exist+today+for+the+emerging+big+data+problems+in+biology.+Nat.+Rev.+Genet.+12%2C+3+%282011%29%2C+224%2D%2D224.+10.1038%2Fnrg2857-c2
http://scholar.google.com/scholar?hl=en&q=Dipanjan+Sengupta%2C+Raghavendra+Belapure%2C+and+Karsten+Schwan.+2013.+Multi-tenancy+on+GPGPU-based+servers.+In+Proceedings+of+the+7th+International+Workshop+on+Virtualization+Technologies+in+Distributed+Computing.+ACM%2C+3%2D%2D10.+10.1145%2F2465829.2465830+
http://scholar.google.com/scholar?hl=en&q=Dipanjan+Sengupta%2C+Anshuman+Goswami%2C+Karsten+Schwan%2C+and+Krishna+Pallavi.+2014.+Scheduling+multi-tenant+cloud+workloads+on+accelerator-based+systems.+In+Proceedings+of+the+International+Conference+for+High+Performance+Computing%2C+Networking%2C+Storage+and+Analysis.+IEEE+Press%2C+513%2D%2D524.+10.1109%2FSC.2014.47+
http://scholar.google.com/scholar?hl=en&q=Gilad+Shainer%2C+Ali+Ayoub%2C+Pak+Lui%2C+Tong+Liu%2C+Michael+Kagan%2C+Christian+R.+Trott%2C+Greg+Scantlen%2C+and+Paul+S.+Crozier.+2011.+The+development+of+Mellanox%2FNVIDIA+GPUDirect+over+InfiniBanda+new+model+for+GPU+to+GPU+communications.+Comput.+Sci.+Res.+Dev.+26%2C+3-4+%282011%29%2C+267%2D%2D273.+10.1007%2Fs00450-011-0157-1+
http://scholar.google.com/scholar?hl=en&q=Haitao+Shan%2C+Kevin+Tian%2C+Eddie+Dong%2C+and+David+Cowperthwaite.+2013.+XenGT%3A+A+software+based+intel+graphics+virtualization+solution.+Proceedings+of+the+Xen+Project+Developer+Summit.
http://scholar.google.com/scholar?hl=en&q=Ryan+Shea+and+Jiangchuan+Liu.+2013.+On+GPU+pass-through+performance+for+cloud+gaming%3A+Experiments+and+analysis.+In+Proceedings+of+the+2013+12th+Annual+Workshop+on+Network+and+Systems+Support+for+Games+%28NetGames%E2%80%9913%29.+IEEE%2C+1%2D%2D6.+10.1109%2FNetGames.2013.6820614+
http://scholar.google.com/scholar?hl=en&q=Lin+Shi%2C+Hao+Chen%2C+and+Jianhua+Sun.+2009.+vCUDA%3A+GPU+accelerated+high+performance+computing+in+virtual+machines.+In+Proceedings+of+the+IEEE+International+Symposium+on+Parallel+8+Distributed+Processing%2C+2009+%28IPDPS%E2%80%9909%29.+IEEE%2C+1%2D%2D11.+10.1109%2FIPDPS.2009.5161020+
http://scholar.google.com/scholar?hl=en&q=Lin+Shi%2C+Hao+Chen%2C+Jianhua+Sun%2C+and+Kenli+Li.+2012.+vCUDA%3A+GPU-accelerated+high-performance+computing+in+virtual+machines.+IEEE+Trans.+Comput.+61%2C+6+%282012%29%2C+804%2D%2D816.+10.1109%2FTC.2011.112+
http://scholar.google.com/scholar?hl=en&q=Weidong+Shi%2C+Yang+Lu%2C+Zhu+Li%2C+and+Jonathan+Engelsma.+2011.+SHARC%3A+A+scalable+3D+graphics+virtual+appliance+delivery+framework+in+cloud.+J.+Netw.+Comput.+Appl.+34%2C+4+%282011%29%2C+1078%2D%2D1087.+10.1016%2Fj.jnca.2010.06.005+
http://scholar.google.com/scholar?hl=en&q=Madhavapeddi+Shreedhar+and+George+Varghese.+1996.+Efficient+fair+queuing+using+deficit+round-robin.+IEEE%2FACM+Trans.+Netw.+4%2C+3+%281996%29%2C+375%2D%2D385.+10.1109%2F90.502236+
http://scholar.google.com/scholar?hl=en&q=Abraham+Silberschatz%2C+Peter+B.+Galvin%2C+Greg+Gagne%2C+and+A.+Silberschatz.+1998.+Operating+System+Concepts.+Vol.+4.+Addison-Wesley%2C+Reading%2C+MA.
http://scholar.google.com/scholar?hl=en&q=Jike+Song%2C+Zhiyuan+Lv%2C+and+Kevin+Tian.+2014.+KVMGT%3A+A+full+GPU+virtualization+solution.+In+KVM+Forum+2014.+http%3A%2F%2Fwww.linux-kvm.org%2Fpage%2FKVM_Forum_2014.
http://scholar.google.com/scholar?hl=en&q=John+A.+Stratton%2C+Christopher+Rodrigues%2C+I-Jui+Sung%2C+Nady+Obeid%2C+Li-Wen+Chang%2C+Nasser+Anssari%2C+Geng+Daniel+Liu%2C+and+Wen-mei+W.+Hwu.+2012.+Parboil%3A+A+revised+benchmark+suite+for+scientific+and+commercial+throughput+computing.+Center+for+Reliable+and+High-Performance+Computing+127+%282012%29.
http://scholar.google.com/scholar?hl=en&q=Yusuke+Suzuki%2C+Shinpei+Kato%2C+Hiroshi+Yamada%2C+and+Kenji+Kono.+2014.+GPUvm%3A+Why+not+virtualizing+GPUs+at+the+hypervisor%3F.+In+Proceedings+of+the+2014+USENIX+Annual+Technical+Conference+%28USENIX+ATC%E2%80%9914%29.+109%2D%2D120.+
http://scholar.google.com/scholar?hl=en&q=Yusuke+Suzuki%2C+Shinpei+Kato%2C+Hiroshi+Yamada%2C+and+Kenji+Kono.+2016.+Gpuvm%3A+Gpu+virtualization+at+the+hypervisor.+IEEE+Trans.+Comput.+65%2C+9+%282016%29%2C+2752%2D%2D2766.+10.1109%2FTC.2015.2506582+
http://scholar.google.com/scholar?hl=en&q=Ivan+Tanasic%2C+Isaac+Gelado%2C+Javier+Cabezas%2C+Alex+Ramirez%2C+Nacho+Navarro%2C+and+Mateo+Valero.+2014.+Enabling+preemptive+multiprogramming+on+GPUs.+In+ACM+SIGARCH+Computer+Architecture+News%2C+Vol.+42.+IEEE+Press%2C+193%2D%2D204.+10.1145%2F2678373.2665702+
http://scholar.google.com/scholar?hl=en&q=Kun+Tian%2C+Yaozu+Dong%2C+and+David+Cowperthwaite.+2014.+A+full+GPU+virtualization+solution+with+mediated+pass-through.+In+Proceedings+of+the+2014+USENIX+Annual+Technical+Conference+%28USENIX+ATC%E2%80%9914%29.+
http://scholar.google.com/scholar?hl=en&q=Tsan-Rong+Tien+and+Yi-Ping+You.+2014.+Enabling+OpenCL+support+for+GPGPU+in+Kernel-based+Virtual+Machine.+Softw.%3A+Pract.+Exper.+44%2C+5+%282014%29%2C+483%2D%2D510.+10.1002%2Fspe.2166+
http://scholar.google.com/scholar?hl=en&q=Top500.+2016.+TOP500+Supercomputer+Sites.+Retrieved+from+https%3A%2F%2Fwww.top500.org%2Flist%2F2016%2F06%2F.
http://scholar.google.com/scholar?hl=en&q=Rich+Uhlig%2C+Gil+Neiger%2C+Dion+Rodgers%2C+Amy+L.+Santoni%2C+Fernando+C.+M.+Martins%2C+Andrew+V.+Anderson%2C+Steven+M.+Bennett%2C+Alain+Kagi%2C+Felix+H.+Leung%2C+and+Larry+Smith.+2005.+Intel+virtualization+technology.+Computer+38%2C+5+%282005%29%2C+48%2D%2D56.+10.1109%2FMC.2005.163+
http://scholar.google.com/scholar?hl=en&q=Leendert+Van+Doorn.+2006.+Hardware+virtualization+trends.+In+Proceedings+of+the+2nd+International+ACM%2FUsenix+Conference+on+Virtual+Execution+Environments%2C+Vol.+14.+45%2D%2D45.+10.1145%2F1134760.1134762+
http://scholar.google.com/scholar?hl=en&q=Stephen+J.+Vaughan-Nichols.+2006.+New+approach+to+virtualization+is+a+lightweight.+Computer+39%2C+11+%282006%29.+10.1109%2FMC.2006.393+
http://scholar.google.com/scholar?hl=en&q=Anthony+Velte+and+Toby+Velte.+2009.+Microsoft+Virtualization+with+Hyper-V.+McGraw-Hill%2C+Inc.+
http://scholar.google.com/scholar?hl=en&q=M.+S.+Vinaya%2C+Naga+Vydyanathan%2C+and+Mrugesh+Gajjar.+2012.+An+evaluation+of+CUDA-enabled+virtualization+solutions.+In+Proceedings+of+the+2012+2nd+IEEE+International+Conference+on+Parallel+Distributed+and+Grid+Computing+%28PDGC%E2%80%9912%29.+IEEE%2C+621%2D%2D626.+10.1109%2FPDGC.2012.6449892
http://scholar.google.com/scholar?hl=en&q=Lan+Vu%2C+Hari+Sivaraman%2C+and+Rishi+Bidarkar.+2014.+GPU+virtualization+for+high+performance+general+purpose+computing+on+the+ESX+hypervisor.+In+Proceedings+of+the+High+Performance+Computing+Symposium.+Society+for+Computer+Simulation+International%2C+2.+
http://scholar.google.com/scholar?hl=en&q=John+Paul+Walters%2C+Andrew+J.+Younge%2C+Dong+In+Kang%2C+Ke+Thia+Yao%2C+Mikyung+Kang%2C+Stephen+P.+Crago%2C+and+Geoffrey+C.+Fox.+2014.+GPU+passthrough+performance%3A+A+comparison+of+KVM%2C+Xen%2C+VMWare+ESXi%2C+and+LXC+for+CUDA+and+OpenCL+applications.+In+Proceedings+of+the+2014+IEEE+7th+International+Conference+on+Cloud+Computing+%28CLOUD%E2%80%9914%29.+IEEE%2C+636%2D%2D643.+10.1109%2FCLOUD.2014.90+
http://scholar.google.com/scholar?hl=en&q=Bin+Wang%2C+Ruhui+Ma%2C+Zhengwei+Qi%2C+Jianguo+Yao%2C+and+Haibing+Guan.+2016.+A+user+mode+CPU%2D%2DGPU+scheduling+framework+for+hybrid+workloads.+Future+Gener.+Comput.+Syst.+63+%282016%29%2C+25%2D%2D36.+10.1016%2Fj.future.2016.03.011+
http://scholar.google.com/scholar?hl=en&q=Jian+Wang%2C+Kwame-Lante+Wright%2C+and+Kartik+Gopalan.+2008.+XenLoop%3A+A+transparent+high+performance+inter-vm+network+loopback.+In+Proceedings+of+the+17th+International+Symposium+on+High+Performance+Distributed+Computing.+ACM%2C+109%2D%2D118.+10.1145%2F1383422.1383437+
http://scholar.google.com/scholar?hl=en&q=Johannes+Winter.+2008.+Trusted+computing+building+blocks+for+embedded+linux-based+ARM+trustzone+platforms.+In+Proceedings+of+the+3rd+ACM+Workshop+on+Scalable+Trusted+Computing.+ACM%2C+21%2D%2D30.+10.1145%2F1456455.1456460+
http://scholar.google.com/scholar?hl=en&q=Craig+M.+Wittenbrink%2C+Emmett+Kilgariff%2C+and+Arjun+Prabhu.+2011.+Fermi+GF100+GPU+architecture.+IEEE+Micro+2+%282011%29%2C+50%2D%2D59.+10.1109%2FMM.2011.24+
http://scholar.google.com/scholar?hl=en&q=Mason+Woo%2C+Jackie+Neider%2C+Tom+Davis%2C+and+Dave+Shreiner.+1999.+OpenGL+Programming+Guide%3A+The+Official+Guide+to+Learning+OpenGL%2C+Version+1.2.+Addison-Wesley+Longman+Publishing+Co.%2C+Inc.+
http://scholar.google.com/scholar?hl=en&q=Linlin+Wu%2C+Saurabh+Kumar+Garg%2C+and+Rajkumar+Buyya.+2011.+Sla-based+resource+allocation+for+software+as+a+service+provider+%28saas%29+in+cloud+computing+environments.+In+Proceedings+of+the+2011+11th+IEEE%2FACM+International+Symposium+on+Cluster%2C+Cloud+and+Grid+Computing+%28CCGrid%E2%80%9911%29.+IEEE%2C+195%2D%2D204.+10.1109%2FCCGrid.2011.51+
http://scholar.google.com/scholar?hl=en&q=Xenproject.+2016.+Xen+Project+Release+Features.+Retrieved+from+https%3A%2F%2Fwiki.xenproject.org%2Fwiki%2FXen_Project_Release_Features.
http://scholar.google.com/scholar?hl=en&q=Shucai+Xiao%2C+Pavan+Balaji%2C+Qian+Zhu%2C+Rajeev+Thakur%2C+Susan+Coghlan%2C+Heshan+Lin%2C+Gaojin+Wen%2C+Jue+Hong%2C+and+Wu-chun+Feng.+2012.+VOCL%3A+An+optimized+environment+for+transparent+virtualization+of+graphics+processing+units.+In+Proceedings+of+the+Innovative+Parallel+Computing+%28InPar%E2%80%9912%29.+IEEE%2C+1%2D%2D12.+10.1109%2FInPar.2012.6339609
http://scholar.google.com/scholar?hl=en&q=X.OrgFoundation.+2011.+Nouveau%3A+Accelerated+Open+Source+driver+for+nVidia+cards.+Retrieved+from+https%3A%2F%2Fnouveau.freedesktop.org%2Fwiki%2F.
http://scholar.google.com/scholar?hl=en&q=Mochi+Xue%2C+Kun+Tian%2C+Yaozu+Dong%2C+Jiajun+Wang%2C+Zhengwei+Qi%2C+Bingsheng+He%2C+and+Haibing+Guan.+2016.+gScale%3A+Scaling+up+GPU+virtualization+with+dynamic+sharing+of+graphics+memory+space.+In+Proceedings+of+the+2016+USENIX+Annual+Technical+Conference+%28USENIX+ATC%E2%80%9916%29.+
http://scholar.google.com/scholar?hl=en&q=Chao-Tung+Yang%2C+Jung-Chun+Liu%2C+Hsien-Yi+Wang%2C+and+Ching-Hsien+Hsu.+2014.+Implementation+of+GPU+virtualization+using+PCI+pass-through+mechanism.+J.+Supercomput.+68%2C+1+%282014%29%2C+183%2D%2D213.+10.1007%2Fs11227-013-1034-4+
http://scholar.google.com/scholar?hl=en&q=Chao-Tung+Yang%2C+Hsien-Yi+Wang%2C+and+Yu-Tso+Liu.+2012a.+Using+pci+pass-through+for+gpu+virtualization+with+cuda.+In+Network+and+Parallel+Computing.+Springer%2C+445%2D%2D452.+10.1007%2F978-3-642-35606-3_53
http://scholar.google.com/scholar?hl=en&q=Chao-Tung+Yang%2C+Hsien-Yi+Wang%2C+Wei-Shen+Ou%2C+Yu-Tso+Liu%2C+and+Ching-Hsien+Hsu.+2012b.+On+implementation+of+GPU+virtualization+using+PCI+pass-through.+In+Proceedings+of+the+2012+IEEE+4th+International+Conference+on+Cloud+Computing+Technology+and+Science+%28CloudCom%E2%80%9912%29.+IEEE%2C+711%2D%2D716.+10.1109%2FCloudCom.2012.6427531+
http://scholar.google.com/scholar?hl=en&q=Chih-Yuan+Yeh%2C+Chung-Yao+Kao%2C+Wei-Shu+Hung%2C+Ching-Chi+Lin%2C+Pangfeng+Liu%2C+Jan-Jan+Wu%2C+and+Kuang-Chih+Liu.+2013.+GPU+virtualization+support+in+cloud+system.+In+International+Conference+on+Grid+and+Pervasive+Computing.+Springer%2C+423%2D%2D432.+10.1007%2F978-3-642-38027-3_45
http://scholar.google.com/scholar?hl=en&q=Yi-Ping+You%2C+Hen-Jung+Wu%2C+Yeh-Ning+Tsai%2C+and+Yen-Ting+Chao.+2015.+VirtCL%3A+A+framework+for+OpenCL+device+abstraction+and+management.+In+ACM+SIGPLAN+Notices%2C+Vol.+50.+ACM%2C+161%2D%2D172.+10.1145%2F2688500.2688505+
http://scholar.google.com/scholar?hl=en&q=Andrew+J.+Younge+and+Geoffrey+C.+Fox.+2014.+Advanced+virtualization+techniques+for+high+performance+cloud+cyberinfrastructure.+In+Proceedings+of+the+2014+14th+IEEE%2FACM+International+Symposium+on+Cluster%2C+Cloud+and+Grid+Computing+%28CCGrid%E2%80%9914%29.+IEEE%2C+583%2D%2D586.+10.1109%2FCCGrid.2014.93
http://scholar.google.com/scholar?hl=en&q=Andrew+J.+Younge%2C+John+Paul+Walters%2C+Stephen+Crago%2C+and+Geoffrey+C.+Fox.+2014.+Evaluating+GPU+passthrough+in+Xen+for+high+performance+cloud+computing.+In+Proceedings+of+the+2014+IEEE+International+Parallel+8+Distributed+Processing+Symposium+Workshops+%28IPDPSW%E2%80%9914%29.+IEEE%2C+852%2D%2D859.+10.1109%2FIPDPSW.2014.97+
http://scholar.google.com/scholar?hl=en&q=Andrew+J.+Younge%2C+John+Paul+Walters%2C+Stephen+P.+Crago%2C+and+Geoffrey+C.+Fox.+2015.+Supporting+high+performance+molecular+dynamics+in+virtualized+clusters+using+IOMMU%2C+SR-IOV%2C+and+GPUDirect.+In+Proceedings+of+the+11th+ACM+SIGPLAN%2FSIGOPS+International+Conference+on+Virtual+Execution+Environments.+ACM%2C+31%2D%2D38.+10.1145%2F2731186.2731194+
http://scholar.google.com/scholar?hl=en&q=Chao+Zhang%2C+Jianguo+Yao%2C+Zhengwei+Qi%2C+Miao+Yu%2C+and+Haibing+Guan.+2014.+vgasa%3A+Adaptive+scheduling+algorithm+of+virtualized+gpu+resource+in+cloud+gaming.+IEEE+Trans.+Parallel+Distrib.+Syst.+25%2C+11+%282014%29%2C+3036%2D%2D3045.+10.1109%2FTPDS.2013.288
http://scholar.google.com/scholar?hl=en&q=Youhui+Zhang%2C+Peng+Qu%2C+Jiang+Cihang%2C+and+Weimin+Zheng.+2016.+A+cloud+gaming+system+based+on+user-level+virtualization+and+its+resource+scheduling.+IEEE+Trans.+Parallel+Distrib.+Syst.+27%2C+5+%282016%29%2C+1239%2D%2D1252.+10.1109%2FTPDS.2015.2433916+
http://scholar.google.com/scholar?hl=en&q=Husheng+Zhou%2C+Guangmo+Tong%2C+and+Cong+Liu.+2015.+GPES%3A+A+preemptive+execution+system+for+GPGPU+computing.+In+Proceedings+of+the+21st+IEEE+Real-Time+and+Embedded+Technology+and+Applications+Symposium.+IEEE%2C+87%2D%2D97.+10.1109%2FRTAS.2015.7108420
